ACE
   112
   1.3284854   2.1725183  -0.0000000   2.0055353   1.3182915  -0.0000000
   2.6341543   1.3522517   0.8898220   2.6341548   1.3522513  -0.8898220
   1.2289996   0.0000000   0.0000000   0.0000000   0.0000000   0.0000000
   1.9541348  -1.1208942  -0.0003014   2.9628412  -1.0697986  -0.0002889
   1.3371785  -2.4319880  -0.0006507   0.7174111  -2.5427043   0.8891411
   0.4597547  -2.6255152  -1.2328434   1.0680804  -2.5265880  -2.1318725
   0.0096029  -3.6178774  -1.2067497  -0.3264531  -1.8706013  -1.2418767
   2.3886987  -3.5323467  -0.0009417   2.2975184  -4.4824672   0.7732660
   3.3902477  -3.4018318  -0.8739196   3.4218798  -2.6024119  -1.4903826
   4.4530491  -4.3818434  -0.9720656   4.0366164  -5.3404307  -1.2815708
   5.5019726  -3.9537915  -1.9929257   5.9346472  -2.9997245  -1.6918460
   6.2873206  -4.7078108  -2.0456851   5.0347393  -3.8474509  -2.9719477
   5.1542663  -4.5655406   0.3662295   5.3805772  -5.6920245   0.8024151
   5.4985099  -3.4527200   1.0184193   5.2909858  -2.5485842   0.6189553
   6.1709582  -3.4939924   2.3012724   7.1436991  -3.9723310   2.1869631
   6.3809151  -2.0892663   2.8565083   5.4150511  -1.6007252   2.9850948
   6.8875221  -2.1506849   3.8196684   6.9904520  -1.5109263   2.1621836
   5.3590128  -4.2804343   3.3204573   5.8980760  -5.1308334   4.0252073
   4.0573577  -3.9940144   3.3971555   3.6597576  -3.2862290   2.7962783
   3.1774658  -4.6727882   4.3270256   3.4934238  -4.4600166   5.3482983
   1.7349272  -4.2084430   4.1564664   1.4012194  -4.4230867   3.1412485
   1.0970199  -4.7342803   4.8668675   1.6740150  -3.1355977   4.3392007
   3.2097434  -6.1791462   4.1117869   3.3292282  -6.9433003   5.0668954
   3.1026410  -6.6052818   2.8511670   3.0062408  -5.9381205   2.0990353
   3.1198103  -8.0147044   2.5152572   2.2609790  -8.5077706   2.9706621
   3.0556389  -8.2200783   1.0055128   3.9141239  -7.7396655   0.5361440
   3.0700600  -9.2869227   0.7824990   2.1368016  -7.7806467   0.6172641
   4.3896829  -8.6833258   3.0220640   4.3333723  -9.7517164   3.6268871
   5.5385584  -8.0504713   2.7734573   5.5339178  -7.1736993   2.2721105
   6.8152531  -8.5838973   3.2037009   6.9966743  -9.5376772   2.7082320
   7.9536564  -7.6302834   2.8568828   7.7908348  -6.6735632   3.3531446
   8.8996616  -8.0561159   3.1913093   7.9853085  -7.4786009   1.7779529
   6.8369321  -8.8060530   4.7092443   7.2575824  -9.8613809   5.1780476
   6.3812841  -7.8063140   5.4676187   6.0454918  -6.9573381   5.0356664
   6.3497886  -7.8950303   6.9135577   7.3664444  -7.9925881   7.2943367
   5.7172855  -6.6500091   7.5263273   4.6956416  -6.5438196   7.1615431
   5.7068785  -6.7440708   8.6122115   6.2966080  -5.7709871   7.2438297
   5.5413027  -9.1006560   7.3710523   5.9820608  -9.8560113   8.2345400
   4.3534184  -9.2796639   6.7887191   4.0339597  -8.6312257   6.0833303
   3.4894114 -10.3895370   7.1369657   3.1931810 -10.3058656   8.1825974
   2.2323852 -10.3986236   6.2735845   2.5123811 -10.4911149   5.2242286
   1.6025822 -11.2419924   6.5567408   1.6824501  -9.4692675   6.4218000
   4.2000980 -11.7206084   6.9378233   4.1573317 -12.5869421   7.8084996
   4.8557506 -11.8817393   5.7861370   4.8621121 -11.1400463   5.1006077
   5.5716787 -13.1030005   5.4769922   4.8687604 -13.9347072   5.4293577
   6.2894131 -12.9941338   4.1358622   7.0033555 -12.1712419   4.1710073
   6.8182028 -13.9246879   3.9295838   5.5604150 -12.8085471   3.3470539
   6.6166484 -13.4096544   6.5402353   6.7116043 -14.5397356   7.0138807
   7.4027778 -12.3978737   6.9151024   7.2864529 -11.4860828   6.4965272
   8.4355017 -12.5616192   7.9182330   9.1782190 -13.2757614   7.5626050
   9.1331663 -11.2371466   8.2091984   8.4038220 -10.5143694   8.5749170
   9.9031692 -11.3899350   8.9654071   9.5918748 -10.8591160   7.2955363
   7.8521838 -13.0772135   9.2260506   8.3857093 -14.0102250   9.8221045
   6.7521866 -12.4661665   9.6719797   6.3500882 -11.7031531   9.1464069
   6.1015683 -12.8637138  10.9041543   6.6482499 -13.6929584  11.3531457
   6.0871707 -12.0216421  11.5961142   5.0791659 -13.1760206  10.6914154
